+ 0.202034 /NodeList/2/DeviceList/1/$ns3::PointToPointNetDevice/TxQueue/Enqueue ns3::PppHeader (Point-to-Point Protocol: IP (0x0021)) ns3::Ipv4Header (tos 0x0 DSCP Default ECN Not-ECT ttl 1 id 0 protocol 17 offset (bytes) 0 flags [none] length: 68 10.1.1.2 > 10.1.1.255) ns3::UdpHeader (length: 48 698 > 698) ns3::olsr::PacketHeader (len: 40 seqNo: 0) ns3::olsr::MessageHeader (type: HELLO TTL: 1 Orig: 10.1.1.2 SeqNo: 0 Validity: 134 Hop count: 0 Size: 16 Interval: 5 (2s) Willingness: 3) ns3::olsr::MessageHeader (type: MID TTL: 255 Orig: 10.1.1.2 SeqNo: 1 Validity: 231 Hop count: 0 Size: 20 [10.1.2.2, 10.1.3.2])
- 0.202034 /NodeList/2/DeviceList/1/$ns3::PointToPointNetDevice/TxQueue/Dequeue ns3::PppHeader (Point-to-Point Protocol: IP (0x0021)) ns3::Ipv4Header (tos 0x0 DSCP Default ECN Not-ECT ttl 1 id 0 protocol 17 offset (bytes) 0 flags [none] length: 68 10.1.1.2 > 10.1.1.255) ns3::UdpHeader (length: 48 698 > 698) ns3::olsr::PacketHeader (len: 40 seqNo: 0) ns3::olsr::MessageHeader (type: HELLO TTL: 1 Orig: 10.1.1.2 SeqNo: 0 Validity: 134 Hop count: 0 Size: 16 Interval: 5 (2s) Willingness: 3) ns3::olsr::MessageHeader (type: MID TTL: 255 Orig: 10.1.1.2 SeqNo: 1 Validity: 231 Hop count: 0 Size: 20 [10.1.2.2, 10.1.3.2])
+ 0.202034 /NodeList/2/DeviceList/2/$ns3::PointToPointNetDevice/TxQueue/Enqueue ns3::PppHeader (Point-to-Point Protocol: IP (0x0021)) ns3::Ipv4Header (tos 0x0 DSCP Default ECN Not-ECT ttl 1 id 0 protocol 17 offset (bytes) 0 flags [none] length: 68 10.1.2.2 > 10.1.2.255) ns3::UdpHeader (length: 48 698 > 698) ns3::olsr::PacketHeader (len: 40 seqNo: 0) ns3::olsr::MessageHeader (type: HELLO TTL: 1 Orig: 10.1.1.2 SeqNo: 0 Validity: 134 Hop count: 0 Size: 16 Interval: 5 (2s) Willingness: 3) ns3::olsr::MessageHeader (type: MID TTL: 255 Orig: 10.1.1.2 SeqNo: 1 Validity: 231 Hop count: 0 Size: 20 [10.1.2.2, 10.1.3.2])
- 0.202034 /NodeList/2/DeviceList/2/$ns3::PointToPointNetDevice/TxQueue/Dequeue ns3::PppHeader (Point-to-Point Protocol: IP (0x0021)) ns3::Ipv4Header (tos 0x0 DSCP Default ECN Not-ECT ttl 1 id 0 protocol 17 offset (bytes) 0 flags [none] length: 68 10.1.2.2 > 10.1.2.255) ns3::UdpHeader (length: 48 698 > 698) ns3::olsr::PacketHeader (len: 40 seqNo: 0) ns3::olsr::MessageHeader (type: HELLO TTL: 1 Orig: 10.1.1.2 SeqNo: 0 Validity: 134 Hop count: 0 Size: 16 Interval: 5 (2s) Willingness: 3) ns3::olsr::MessageHeader (type: MID TTL: 255 Orig: 10.1.1.2 SeqNo: 1 Validity: 231 Hop count: 0 Size: 20 [10.1.2.2, 10.1.3.2])
+ 0.202034 /NodeList/2/DeviceList/3/$ns3::PointToPointNetDevice/TxQueue/Enqueue ns3::PppHeader (Point-to-Point Protocol: IP (0x0021)) ns3::Ipv4Header (tos 0x0 DSCP Default ECN Not-ECT ttl 1 id 0 protocol 17 offset (bytes) 0 flags [none] length: 68 10.1.3.2 > 10.1.3.255) ns3::UdpHeader (length: 48 698 > 698) ns3::olsr::PacketHeader (len: 40 seqNo: 0) ns3::olsr::MessageHeader (type: HELLO TTL: 1 Orig: 10.1.1.2 SeqNo: 0 Validity: 134 Hop count: 0 Size: 16 Interval: 5 (2s) Willingness: 3) ns3::olsr::MessageHeader (type: MID TTL: 255 Orig: 10.1.1.2 SeqNo: 1 Validity: 231 Hop count: 0 Size: 20 [10.1.2.2, 10.1.3.2])
- 0.202034 /NodeList/2/DeviceList/3/$ns3::PointToPointNetDevice/TxQueue/Dequeue ns3::PppHeader (Point-to-Point Protocol: IP (0x0021)) ns3::Ipv4Header (tos 0x0 DSCP Default ECN Not-ECT ttl 1 id 0 protocol 17 offset (bytes) 0 flags [none] length: 68 10.1.3.2 > 10.1.3.255) ns3::UdpHeader (length: 48 698 > 698) ns3::olsr::PacketHeader (len: 40 seqNo: 0) ns3::olsr::MessageHeader (type: HELLO TTL: 1 Orig: 10.1.1.2 SeqNo: 0 Validity: 134 Hop count: 0 Size: 16 Interval: 5 (2s) Willingness: 3) ns3::olsr::MessageHeader (type: MID TTL: 255 Orig: 10.1.1.2 SeqNo: 1 Validity: 231 Hop count: 0 Size: 20 [10.1.2.2, 10.1.3.2])
r 0.204146 /NodeList/0/DeviceList/1/$ns3::PointToPointNetDevice/MacRx ns3::PppHeader (Point-to-Point Protocol: IP (0x0021)) ns3::Ipv4Header (tos 0x0 DSCP Default ECN Not-ECT ttl 1 id 0 protocol 17 offset (bytes) 0 flags [none] length: 68 10.1.1.2 > 10.1.1.255) ns3::UdpHeader (length: 48 698 > 698) ns3::olsr::PacketHeader (len: 40 seqNo: 0) ns3::olsr::MessageHeader (type: HELLO TTL: 1 Orig: 10.1.1.2 SeqNo: 0 Validity: 134 Hop count: 0 Size: 16 Interval: 5 (2s) Willingness: 3) ns3::olsr::MessageHeader (type: MID TTL: 255 Orig: 10.1.1.2 SeqNo: 1 Validity: 231 Hop count: 0 Size: 20 [10.1.2.2, 10.1.3.2])
r 0.204146 /NodeList/1/DeviceList/1/$ns3::PointToPointNetDevice/MacRx ns3::PppHeader (Point-to-Point Protocol: IP (0x0021)) ns3::Ipv4Header (tos 0x0 DSCP Default ECN Not-ECT ttl 1 id 0 protocol 17 offset (bytes) 0 flags [none] length: 68 10.1.2.2 > 10.1.2.255) ns3::UdpHeader (length: 48 698 > 698) ns3::olsr::PacketHeader (len: 40 seqNo: 0) ns3::olsr::MessageHeader (type: HELLO TTL: 1 Orig: 10.1.1.2 SeqNo: 0 Validity: 134 Hop count: 0 Size: 16 Interval: 5 (2s) Willingness: 3) ns3::olsr::MessageHeader (type: MID TTL: 255 Orig: 10.1.1.2 SeqNo: 1 Validity: 231 Hop count: 0 Size: 20 [10.1.2.2, 10.1.3.2])
r 0.212408 /NodeList/3/DeviceList/1/$ns3::PointToPointNetDevice/MacRx ns3::PppHeader (Point-to-Point Protocol: IP (0x0021)) ns3::Ipv4Header (tos 0x0 DSCP Default ECN Not-ECT ttl 1 id 0 protocol 17 offset (bytes) 0 flags [none] length: 68 10.1.3.2 > 10.1.3.255) ns3::UdpHeader (length: 48 698 > 698) ns3::olsr::PacketHeader (len: 40 seqNo: 0) ns3::olsr::MessageHeader (type: HELLO TTL: 1 Orig: 10.1.1.2 SeqNo: 0 Validity: 134 Hop count: 0 Size: 16 Interval: 5 (2s) Willingness: 3) ns3::olsr::MessageHeader (type: MID TTL: 255 Orig: 10.1.1.2 SeqNo: 1 Validity: 231 Hop count: 0 Size: 20 [10.1.2.2, 10.1.3.2])
+ 0.257317 /NodeList/3/DeviceList/1/$ns3::PointToPointNetDevice/TxQueue/Enqueue ns3::PppHeader (Point-to-Point Protocol: IP (0x0021)) ns3::Ipv4Header (tos 0x0 DSCP Default ECN Not-ECT ttl 1 id 0 protocol 17 offset (bytes) 0 flags [none] length: 64 10.1.3.1 > 10.1.3.255) ns3::UdpHeader (length: 44 698 > 698) ns3::olsr::PacketHeader (len: 36 seqNo: 0) ns3::olsr::MessageHeader (type: HELLO TTL: 1 Orig: 10.1.3.1 SeqNo: 0 Validity: 134 Hop count: 0 Size: 16 Interval: 5 (2s) Willingness: 3) ns3::olsr::MessageHeader (type: MID TTL: 255 Orig: 10.1.3.1 SeqNo: 1 Validity: 231 Hop count: 0 Size: 16 [10.1.4.1])
- 0.257317 /NodeList/3/DeviceList/1/$ns3::PointToPointNetDevice/TxQueue/Dequeue ns3::PppHeader (Point-to-Point Protocol: IP (0x0021)) ns3::Ipv4Header (tos 0x0 DSCP Default ECN Not-ECT ttl 1 id 0 protocol 17 offset (bytes) 0 flags [none] length: 64 10.1.3.1 > 10.1.3.255) ns3::UdpHeader (length: 44 698 > 698) ns3::olsr::PacketHeader (len: 36 seqNo: 0) ns3::olsr::MessageHeader (type: HELLO TTL: 1 Orig: 10.1.3.1 SeqNo: 0 Validity: 134 Hop count: 0 Size: 16 Interval: 5 (2s) Willingness: 3) ns3::olsr::MessageHeader (type: MID TTL: 255 Orig: 10.1.3.1 SeqNo: 1 Validity: 231 Hop count: 0 Size: 16 [10.1.4.1])
+ 0.257317 /NodeList/3/DeviceList/2/$ns3::PointToPointNetDevice/TxQueue/Enqueue ns3::PppHeader (Point-to-Point Protocol: IP (0x0021)) ns3::Ipv4Header (tos 0x0 DSCP Default ECN Not-ECT ttl 1 id 0 protocol 17 offset (bytes) 0 flags [none] length: 64 10.1.4.1 > 10.1.4.255) ns3::UdpHeader (length: 44 698 > 698) ns3::olsr::PacketHeader (len: 36 seqNo: 0) ns3::olsr::MessageHeader (type: HELLO TTL: 1 Orig: 10.1.3.1 SeqNo: 0 Validity: 134 Hop count: 0 Size: 16 Interval: 5 (2s) Willingness: 3) ns3::olsr::MessageHeader (type: MID TTL: 255 Orig: 10.1.3.1 SeqNo: 1 Validity: 231 Hop count: 0 Size: 16 [10.1.4.1])
- 0.257317 /NodeList/3/DeviceList/2/$ns3::PointToPointNetDevice/TxQueue/Dequeue ns3::PppHeader (Point-to-Point Protocol: IP (0x0021)) ns3::Ipv4Header (tos 0x0 DSCP Default ECN Not-ECT ttl 1 id 0 protocol 17 offset (bytes) 0 flags [none] length: 64 10.1.4.1 > 10.1.4.255) ns3::UdpHeader (length: 44 698 > 698) ns3::olsr::PacketHeader (len: 36 seqNo: 0) ns3::olsr::MessageHeader (type: HELLO TTL: 1 Orig: 10.1.3.1 SeqNo: 0 Validity: 134 Hop count: 0 Size: 16 Interval: 5 (2s) Willingness: 3) ns3::olsr::MessageHeader (type: MID TTL: 255 Orig: 10.1.3.1 SeqNo: 1 Validity: 231 Hop count: 0 Size: 16 [10.1.4.1])
r 0.267669 /NodeList/2/DeviceList/3/$ns3::PointToPointNetDevice/MacRx ns3::PppHeader (Point-to-Point Protocol: IP (0x0021)) ns3::Ipv4Header (tos 0x0 DSCP Default ECN Not-ECT ttl 1 id 0 protocol 17 offset (bytes) 0 flags [none] length: 64 10.1.3.1 > 10.1.3.255) ns3::UdpHeader (length: 44 698 > 698) ns3::olsr::PacketHeader (len: 36 seqNo: 0) ns3::olsr::MessageHeader (type: HELLO TTL: 1 Orig: 10.1.3.1 SeqNo: 0 Validity: 134 Hop count: 0 Size: 16 Interval: 5 (2s) Willingness: 3) ns3::olsr::MessageHeader (type: MID TTL: 255 Orig: 10.1.3.1 SeqNo: 1 Validity: 231 Hop count: 0 Size: 16 [10.1.4.1])
r 0.267669 /NodeList/4/DeviceList/1/$ns3::PointToPointNetDevice/MacRx ns3::PppHeader (Point-to-Point Protocol: IP (0x0021)) ns3::Ipv4Header (tos 0x0 DSCP Default ECN Not-ECT ttl 1 id 0 protocol 17 offset (bytes) 0 flags [none] length: 64 10.1.4.1 > 10.1.4.255) ns3::UdpHeader (length: 44 698 > 698) ns3::olsr::PacketHeader (len: 36 seqNo: 0) ns3::olsr::MessageHeader (type: HELLO TTL: 1 Orig: 10.1.3.1 SeqNo: 0 Validity: 134 Hop count: 0 Size: 16 Interval: 5 (2s) Willingness: 3) ns3::olsr::MessageHeader (type: MID TTL: 255 Orig: 10.1.3.1 SeqNo: 1 Validity: 231 Hop count: 0 Size: 16 [10.1.4.1])
+ 0.296644 /NodeList/1/DeviceList/1/$ns3::PointToPointNetDevice/TxQueue/Enqueue ns3::PppHeader (Point-to-Point Protocol: IP (0x0021)) ns3::Ipv4Header (tos 0x0 DSCP Default ECN Not-ECT ttl 1 id 0 protocol 17 offset (bytes) 0 flags [none] length: 48 10.1.2.1 > 10.1.2.255) ns3::UdpHeader (length: 28 698 > 698) ns3::olsr::PacketHeader (len: 20 seqNo: 0) ns3::olsr::MessageHeader (type: HELLO TTL: 1 Orig: 10.1.2.1 SeqNo: 0 Validity: 134 Hop count: 0 Size: 16 Interval: 5 (2s) Willingness: 3)
- 0.296644 /NodeList/1/DeviceList/1/$ns3::PointToPointNetDevice/TxQueue/Dequeue ns3::PppHeader (Point-to-Point Protocol: IP (0x0021)) ns3::Ipv4Header (tos 0x0 DSCP Default ECN Not-ECT ttl 1 id 0 protocol 17 offset (bytes) 0 flags [none] length: 48 10.1.2.1 > 10.1.2.255) ns3::UdpHeader (length: 28 698 > 698) ns3::olsr::PacketHeader (len: 20 seqNo: 0) ns3::olsr::MessageHeader (type: HELLO TTL: 1 Orig: 10.1.2.1 SeqNo: 0 Validity: 134 Hop count: 0 Size: 16 Interval: 5 (2s) Willingness: 3)
r 0.298724 /NodeList/2/DeviceList/2/$ns3::PointToPointNetDevice/MacRx ns3::PppHeader (Point-to-Point Protocol: IP (0x0021)) ns3::Ipv4Header (tos 0x0 DSCP Default ECN Not-ECT ttl 1 id 0 protocol 17 offset (bytes) 0 flags [none] length: 48 10.1.2.1 > 10.1.2.255) ns3::UdpHeader (length: 28 698 > 698) ns3::olsr::PacketHeader (len: 20 seqNo: 0) ns3::olsr::MessageHeader (type: HELLO TTL: 1 Orig: 10.1.2.1 SeqNo: 0 Validity: 134 Hop count: 0 Size: 16 Interval: 5 (2s) Willingness: 3)
+ 0.333009 /NodeList/4/DeviceList/1/$ns3::PointToPointNetDevice/TxQueue/Enqueue ns3::PppHeader (Point-to-Point Protocol: IP (0x0021)) ns3::Ipv4Header (tos 0x0 DSCP Default ECN Not-ECT ttl 1 id 0 protocol 17 offset (bytes) 0 flags [none] length: 48 10.1.4.2 > 10.1.4.255) ns3::UdpHeader (length: 28 698 > 698) ns3::olsr::PacketHeader (len: 20 seqNo: 0) ns3::olsr::MessageHeader (type: HELLO TTL: 1 Orig: 10.1.4.2 SeqNo: 0 Validity: 134 Hop count: 0 Size: 16 Interval: 5 (2s) Willingness: 3)
- 0.333009 /NodeList/4/DeviceList/1/$ns3::PointToPointNetDevice/TxQueue/Dequeue ns3::PppHeader (Point-to-Point Protocol: IP (0x0021)) ns3::Ipv4Header (tos 0x0 DSCP Default ECN Not-ECT ttl 1 id 0 protocol 17 offset (bytes) 0 flags [none] length: 48 10.1.4.2 > 10.1.4.255) ns3::UdpHeader (length: 28 698 > 698) ns3::olsr::PacketHeader (len: 20 seqNo: 0) ns3::olsr::MessageHeader (type: HELLO TTL: 1 Orig: 10.1.4.2 SeqNo: 0 Validity: 134 Hop count: 0 Size: 16 Interval: 5 (2s) Willingness: 3)
r 0.343275 /NodeList/3/DeviceList/2/$ns3::PointToPointNetDevice/MacRx ns3::PppHeader (Point-to-Point Protocol: IP (0x0021)) ns3::Ipv4Header (tos 0x0 DSCP Default ECN Not-ECT ttl 1 id 0 protocol 17 offset (bytes) 0 flags [none] length: 48 10.1.4.2 > 10.1.4.255) ns3::UdpHeader (length: 28 698 > 698) ns3::olsr::PacketHeader (len: 20 seqNo: 0) ns3::olsr::MessageHeader (type: HELLO TTL: 1 Orig: 10.1.4.2 SeqNo: 0 Validity: 134 Hop count: 0 Size: 16 Interval: 5 (2s) Willingness: 3)
+ 0.417575 /NodeList/0/DeviceList/1/$ns3::PointToPointNetDevice/TxQueue/Enqueue ns3::PppHeader (Point-to-Point Protocol: IP (0x0021)) ns3::Ipv4Header (tos 0x0 DSCP Default ECN Not-ECT ttl 1 id 0 protocol 17 offset (bytes) 0 flags [none] length: 48 10.1.1.1 > 10.1.1.255) ns3::UdpHeader (length: 28 698 > 698) ns3::olsr::PacketHeader (len: 20 seqNo: 0) ns3::olsr::MessageHeader (type: HELLO TTL: 1 Orig: 10.1.1.1 SeqNo: 0 Validity: 134 Hop count: 0 Size: 16 Interval: 5 (2s) Willingness: 3)
- 0.417575 /NodeList/0/DeviceList/1/$ns3::PointToPointNetDevice/TxQueue/Dequeue ns3::PppHeader (Point-to-Point Protocol: IP (0x0021)) ns3::Ipv4Header (tos 0x0 DSCP Default ECN Not-ECT ttl 1 id 0 protocol 17 offset (bytes) 0 flags [none] length: 48 10.1.1.1 > 10.1.1.255) ns3::UdpHeader (length: 28 698 > 698) ns3::olsr::PacketHeader (len: 20 seqNo: 0) ns3::olsr::MessageHeader (type: HELLO TTL: 1 Orig: 10.1.1.1 SeqNo: 0 Validity: 134 Hop count: 0 Size: 16 Interval: 5 (2s) Willingness: 3)
r 0.419655 /NodeList/2/DeviceList/1/$ns3::PointToPointNetDevice/MacRx ns3::PppHeader (Point-to-Point Protocol: IP (0x0021)) ns3::Ipv4Header (tos 0x0 DSCP Default ECN Not-ECT ttl 1 id 0 protocol 17 offset (bytes) 0 flags [none] length: 48 10.1.1.1 > 10.1.1.255) ns3::UdpHeader (length: 28 698 > 698) ns3::olsr::PacketHeader (len: 20 seqNo: 0) ns3::olsr::MessageHeader (type: HELLO TTL: 1 Orig: 10.1.1.1 SeqNo: 0 Validity: 134 Hop count: 0 Size: 16 Interval: 5 (2s) Willingness: 3)
+ 2.12656 /NodeList/1/DeviceList/1/$ns3::PointToPointNetDevice/TxQueue/Enqueue ns3::PppHeader (Point-to-Point Protocol: IP (0x0021)) ns3::Ipv4Header (tos 0x0 DSCP Default ECN Not-ECT ttl 1 id 1 protocol 17 offset (bytes) 0 flags [none] length: 56 10.1.2.1 > 10.1.2.255) ns3::UdpHeader (length: 36 698 > 698) ns3::olsr::PacketHeader (len: 28 seqNo: 1) ns3::olsr::MessageHeader (type: HELLO TTL: 1 Orig: 10.1.2.1 SeqNo: 1 Validity: 134 Hop count: 0 Size: 24 Interval: 5 (2s) Willingness: 3 Link code: 1 [10.1.2.2])
- 2.12656 /NodeList/1/DeviceList/1/$ns3::PointToPointNetDevice/TxQueue/Dequeue ns3::PppHeader (Point-to-Point Protocol: IP (0x0021)) ns3::Ipv4Header (tos 0x0 DSCP Default ECN Not-ECT ttl 1 id 1 protocol 17 offset (bytes) 0 flags [none] length: 56 10.1.2.1 > 10.1.2.255) ns3::UdpHeader (length: 36 698 > 698) ns3::olsr::PacketHeader (len: 28 seqNo: 1) ns3::olsr::MessageHeader (type: HELLO TTL: 1 Orig: 10.1.2.1 SeqNo: 1 Validity: 134 Hop count: 0 Size: 24 Interval: 5 (2s) Willingness: 3 Link code: 1 [10.1.2.2])
r 2.12865 /NodeList/2/DeviceList/2/$ns3::PointToPointNetDevice/MacRx ns3::PppHeader (Point-to-Point Protocol: IP (0x0021)) ns3::Ipv4Header (tos 0x0 DSCP Default ECN Not-ECT ttl 1 id 1 protocol 17 offset (bytes) 0 flags [none] length: 56 10.1.2.1 > 10.1.2.255) ns3::UdpHeader (length: 36 698 > 698) ns3::olsr::PacketHeader (len: 28 seqNo: 1) ns3::olsr::MessageHeader (type: HELLO TTL: 1 Orig: 10.1.2.1 SeqNo: 1 Validity: 134 Hop count: 0 Size: 24 Interval: 5 (2s) Willingness: 3 Link code: 1 [10.1.2.2])
+ 2.14233 /NodeList/4/DeviceList/1/$ns3::PointToPointNetDevice/TxQueue/Enqueue ns3::PppHeader (Point-to-Point Protocol: IP (0x0021)) ns3::Ipv4Header (tos 0x0 DSCP Default ECN Not-ECT ttl 1 id 1 protocol 17 offset (bytes) 0 flags [none] length: 56 10.1.4.2 > 10.1.4.255) ns3::UdpHeader (length: 36 698 > 698) ns3::olsr::PacketHeader (len: 28 seqNo: 1) ns3::olsr::MessageHeader (type: HELLO TTL: 1 Orig: 10.1.4.2 SeqNo: 1 Validity: 134 Hop count: 0 Size: 24 Interval: 5 (2s) Willingness: 3 Link code: 1 [10.1.4.1])
- 2.14233 /NodeList/4/DeviceList/1/$ns3::PointToPointNetDevice/TxQueue/Dequeue ns3::PppHeader (Point-to-Point Protocol: IP (0x0021)) ns3::Ipv4Header (tos 0x0 DSCP Default ECN Not-ECT ttl 1 id 1 protocol 17 offset (bytes) 0 flags [none] length: 56 10.1.4.2 > 10.1.4.255) ns3::UdpHeader (length: 36 698 > 698) ns3::olsr::PacketHeader (len: 28 seqNo: 1) ns3::olsr::MessageHeader (type: HELLO TTL: 1 Orig: 10.1.4.2 SeqNo: 1 Validity: 134 Hop count: 0 Size: 24 Interval: 5 (2s) Willingness: 3 Link code: 1 [10.1.4.1])
r 2.15264 /NodeList/3/DeviceList/2/$ns3::PointToPointNetDevice/MacRx ns3::PppHeader (Point-to-Point Protocol: IP (0x0021)) ns3::Ipv4Header (tos 0x0 DSCP Default ECN Not-ECT ttl 1 id 1 protocol 17 offset (bytes) 0 flags [none] length: 56 10.1.4.2 > 10.1.4.255) ns3::UdpHeader (length: 36 698 > 698) ns3::olsr::PacketHeader (len: 28 seqNo: 1) ns3::olsr::MessageHeader (type: HELLO TTL: 1 Orig: 10.1.4.2 SeqNo: 1 Validity: 134 Hop count: 0 Size: 24 Interval: 5 (2s) Willingness: 3 Link code: 1 [10.1.4.1])
+ 2.18211 /NodeList/3/DeviceList/1/$ns3::PointToPointNetDevice/TxQueue/Enqueue ns3::PppHeader (Point-to-Point Protocol: IP (0x0021)) ns3::Ipv4Header (tos 0x0 DSCP Default ECN Not-ECT ttl 1 id 1 protocol 17 offset (bytes) 0 flags [none] length: 64 10.1.3.1 > 10.1.3.255) ns3::UdpHeader (length: 44 698 > 698) ns3::olsr::PacketHeader (len: 36 seqNo: 1) ns3::olsr::MessageHeader (type: HELLO TTL: 1 Orig: 10.1.3.1 SeqNo: 2 Validity: 134 Hop count: 0 Size: 32 Interval: 5 (2s) Willingness: 3 Link code: 1 [10.1.3.2] Link code: 1 [10.1.4.2])
- 2.18211 /NodeList/3/DeviceList/1/$ns3::PointToPointNetDevice/TxQueue/Dequeue ns3::PppHeader (Point-to-Point Protocol: IP (0x0021)) ns3::Ipv4Header (tos 0x0 DSCP Default ECN Not-ECT ttl 1 id 1 protocol 17 offset (bytes) 0 flags [none] length: 64 10.1.3.1 > 10.1.3.255) ns3::UdpHeader (length: 44 698 > 698) ns3::olsr::PacketHeader (len: 36 seqNo: 1) ns3::olsr::MessageHeader (type: HELLO TTL: 1 Orig: 10.1.3.1 SeqNo: 2 Validity: 134 Hop count: 0 Size: 32 Interval: 5 (2s) Willingness: 3 Link code: 1 [10.1.3.2] Link code: 1 [10.1.4.2])
+ 2.18211 /NodeList/3/DeviceList/2/$ns3::PointToPointNetDevice/TxQueue/Enqueue ns3::PppHeader (Point-to-Point Protocol: IP (0x0021)) ns3::Ipv4Header (tos 0x0 DSCP Default ECN Not-ECT ttl 1 id 1 protocol 17 offset (bytes) 0 flags [none] length: 64 10.1.4.1 > 10.1.4.255) ns3::UdpHeader (length: 44 698 > 698) ns3::olsr::PacketHeader (len: 36 seqNo: 1) ns3::olsr::MessageHeader (type: HELLO TTL: 1 Orig: 10.1.3.1 SeqNo: 2 Validity: 134 Hop count: 0 Size: 32 Interval: 5 (2s) Willingness: 3 Link code: 1 [10.1.3.2] Link code: 1 [10.1.4.2])
- 2.18211 /NodeList/3/DeviceList/2/$ns3::PointToPointNetDevice/TxQueue/Dequeue ns3::PppHeader (Point-to-Point Protocol: IP (0x0021)) ns3::Ipv4Header (tos 0x0 DSCP Default ECN Not-ECT ttl 1 id 1 protocol 17 offset (bytes) 0 flags [none] length: 64 10.1.4.1 > 10.1.4.255) ns3::UdpHeader (length: 44 698 > 698) ns3::olsr::PacketHeader (len: 36 seqNo: 1) ns3::olsr::MessageHeader (type: HELLO TTL: 1 Orig: 10.1.3.1 SeqNo: 2 Validity: 134 Hop count: 0 Size: 32 Interval: 5 (2s) Willingness: 3 Link code: 1 [10.1.3.2] Link code: 1 [10.1.4.2])
r 2.19247 /NodeList/2/DeviceList/3/$ns3::PointToPointNetDevice/MacRx ns3::PppHeader (Point-to-Point Protocol: IP (0x0021)) ns3::Ipv4Header (tos 0x0 DSCP Default ECN Not-ECT ttl 1 id 1 protocol 17 offset (bytes) 0 flags [none] length: 64 10.1.3.1 > 10.1.3.255) ns3::UdpHeader (length: 44 698 > 698) ns3::olsr::PacketHeader (len: 36 seqNo: 1) ns3::olsr::MessageHeader (type: HELLO TTL: 1 Orig: 10.1.3.1 SeqNo: 2 Validity: 134 Hop count: 0 Size: 32 Interval: 5 (2s) Willingness: 3 Link code: 1 [10.1.3.2] Link code: 1 [10.1.4.2])
r 2.19247 /NodeList/4/DeviceList/1/$ns3::PointToPointNetDevice/MacRx ns3::PppHeader (Point-to-Point Protocol: IP (0x0021)) ns3::Ipv4Header (tos 0x0 DSCP Default ECN Not-ECT ttl 1 id 1 protocol 17 offset (bytes) 0 flags [none] length: 64 10.1.4.1 > 10.1.4.255) ns3::UdpHeader (length: 44 698 > 698) ns3::olsr::PacketHeader (len: 36 seqNo: 1) ns3::olsr::MessageHeader (type: HELLO TTL: 1 Orig: 10.1.3.1 SeqNo: 2 Validity: 134 Hop count: 0 Size: 32 Interval: 5 (2s) Willingness: 3 Link code: 1 [10.1.3.2] Link code: 1 [10.1.4.2])
+ 2.26308 /NodeList/0/DeviceList/1/$ns3::PointToPointNetDevice/TxQueue/Enqueue ns3::PppHeader (Point-to-Point Protocol: IP (0x0021)) ns3::Ipv4Header (tos 0x0 DSCP Default ECN Not-ECT ttl 1 id 1 protocol 17 offset (bytes) 0 flags [none] length: 56 10.1.1.1 > 10.1.1.255) ns3::UdpHeader (length: 36 698 > 698) ns3::olsr::PacketHeader (len: 28 seqNo: 1) ns3::olsr::MessageHeader (type: HELLO TTL: 1 Orig: 10.1.1.1 SeqNo: 1 Validity: 134 Hop count: 0 Size: 24 Interval: 5 (2s) Willingness: 3 Link code: 1 [10.1.1.2])
- 2.26308 /NodeList/0/DeviceList/1/$ns3::PointToPointNetDevice/TxQueue/Dequeue ns3::PppHeader (Point-to-Point Protocol: IP (0x0021)) ns3::Ipv4Header (tos 0x0 DSCP Default ECN Not-ECT ttl 1 id 1 protocol 17 offset (bytes) 0 flags [none] length: 56 10.1.1.1 > 10.1.1.255) ns3::UdpHeader (length: 36 698 > 698) ns3::olsr::PacketHeader (len: 28 seqNo: 1) ns3::olsr::MessageHeader (type: HELLO TTL: 1 Orig: 10.1.1.1 SeqNo: 1 Validity: 134 Hop count: 0 Size: 24 Interval: 5 (2s) Willingness: 3 Link code: 1 [10.1.1.2])
r 2.26518 /NodeList/2/DeviceList/1/$ns3::PointToPointNetDevice/MacRx ns3::PppHeader (Point-to-Point Protocol: IP (0x0021)) ns3::Ipv4Header (tos 0x0 DSCP Default ECN Not-ECT ttl 1 id 1 protocol 17 offset (bytes) 0 flags [none] length: 56 10.1.1.1 > 10.1.1.255) ns3::UdpHeader (length: 36 698 > 698) ns3::olsr::PacketHeader (len: 28 seqNo: 1) ns3::olsr::MessageHeader (type: HELLO TTL: 1 Orig: 10.1.1.1 SeqNo: 1 Validity: 134 Hop count: 0 Size: 24 Interval: 5 (2s) Willingness: 3 Link code: 1 [10.1.1.2])
+ 2.43071 /NodeList/2/DeviceList/1/$ns3::PointToPointNetDevice/TxQueue/Enqueue ns3::PppHeader (Point-to-Point Protocol: IP (0x0021)) ns3::Ipv4Header (tos 0x0 DSCP Default ECN Not-ECT ttl 1 id 1 protocol 17 offset (bytes) 0 flags [none] length: 72 10.1.1.2 > 10.1.1.255) ns3::UdpHeader (length: 52 698 > 698) ns3::olsr::PacketHeader (len: 44 seqNo: 1) ns3::olsr::MessageHeader (type: HELLO TTL: 1 Orig: 10.1.1.2 SeqNo: 2 Validity: 134 Hop count: 0 Size: 40 Interval: 5 (2s) Willingness: 3 Link code: 1 [10.1.3.1] Link code: 1 [10.1.2.1] Link code: 1 [10.1.1.1])
- 2.43071 /NodeList/2/DeviceList/1/$ns3::PointToPointNetDevice/TxQueue/Dequeue ns3::PppHeader (Point-to-Point Protocol: IP (0x0021)) ns3::Ipv4Header (tos 0x0 DSCP Default ECN Not-ECT ttl 1 id 1 protocol 17 offset (bytes) 0 flags [none] length: 72 10.1.1.2 > 10.1.1.255) ns3::UdpHeader (length: 52 698 > 698) ns3::olsr::PacketHeader (len: 44 seqNo: 1) ns3::olsr::MessageHeader (type: HELLO TTL: 1 Orig: 10.1.1.2 SeqNo: 2 Validity: 134 Hop count: 0 Size: 40 Interval: 5 (2s) Willingness: 3 Link code: 1 [10.1.3.1] Link code: 1 [10.1.2.1] Link code: 1 [10.1.1.1])
+ 2.43071 /NodeList/2/DeviceList/2/$ns3::PointToPointNetDevice/TxQueue/Enqueue ns3::PppHeader (Point-to-Point Protocol: IP (0x0021)) ns3::Ipv4Header (tos 0x0 DSCP Default ECN Not-ECT ttl 1 id 1 protocol 17 offset (bytes) 0 flags [none] length: 72 10.1.2.2 > 10.1.2.255) ns3::UdpHeader (length: 52 698 > 698) ns3::olsr::PacketHeader (len: 44 seqNo: 1) ns3::olsr::MessageHeader (type: HELLO TTL: 1 Orig: 10.1.1.2 SeqNo: 2 Validity: 134 Hop count: 0 Size: 40 Interval: 5 (2s) Willingness: 3 Link code: 1 [10.1.3.1] Link code: 1 [10.1.2.1] Link code: 1 [10.1.1.1])
- 2.43071 /NodeList/2/DeviceList/2/$ns3::PointToPointNetDevice/TxQueue/Dequeue ns3::PppHeader (Point-to-Point Protocol: IP (0x0021)) ns3::Ipv4Header (tos 0x0 DSCP Default ECN Not-ECT ttl 1 id 1 protocol 17 offset (bytes) 0 flags [none] length: 72 10.1.2.2 > 10.1.2.255) ns3::UdpHeader (length: 52 698 > 698) ns3::olsr::PacketHeader (len: 44 seqNo: 1) ns3::olsr::MessageHeader (type: HELLO TTL: 1 Orig: 10.1.1.2 SeqNo: 2 Validity: 134 Hop count: 0 Size: 40 Interval: 5 (2s) Willingness: 3 Link code: 1 [10.1.3.1] Link code: 1 [10.1.2.1] Link code: 1 [10.1.1.1])
+ 2.43071 /NodeList/2/DeviceList/3/$ns3::PointToPointNetDevice/TxQueue/Enqueue ns3::PppHeader (Point-to-Point Protocol: IP (0x0021)) ns3::Ipv4Header (tos 0x0 DSCP Default ECN Not-ECT ttl 1 id 1 protocol 17 offset (bytes) 0 flags [none] length: 72 10.1.3.2 > 10.1.3.255) ns3::UdpHeader (length: 52 698 > 698) ns3::olsr::PacketHeader (len: 44 seqNo: 1) ns3::olsr::MessageHeader (type: HELLO TTL: 1 Orig: 10.1.1.2 SeqNo: 2 Validity: 134 Hop count: 0 Size: 40 Interval: 5 (2s) Willingness: 3 Link code: 1 [10.1.3.1] Link code: 1 [10.1.2.1] Link code: 1 [10.1.1.1])
- 2.43071 /NodeList/2/DeviceList/3/$ns3::PointToPointNetDevice/TxQueue/Dequeue ns3::PppHeader (Point-to-Point Protocol: IP (0x0021)) ns3::Ipv4Header (tos 0x0 DSCP Default ECN Not-ECT ttl 1 id 1 protocol 17 offset (bytes) 0 flags [none] length: 72 10.1.3.2 > 10.1.3.255) ns3::UdpHeader (length: 52 698 > 698) ns3::olsr::PacketHeader (len: 44 seqNo: 1) ns3::olsr::MessageHeader (type: HELLO TTL: 1 Orig: 10.1.1.2 SeqNo: 2 Validity: 134 Hop count: 0 Size: 40 Interval: 5 (2s) Willingness: 3 Link code: 1 [10.1.3.1] Link code: 1 [10.1.2.1] Link code: 1 [10.1.1.1])
r 2.43283 /NodeList/0/DeviceList/1/$ns3::PointToPointNetDevice/MacRx ns3::PppHeader (Point-to-Point Protocol: IP (0x0021)) ns3::Ipv4Header (tos 0x0 DSCP Default ECN Not-ECT ttl 1 id 1 protocol 17 offset (bytes) 0 flags [none] length: 72 10.1.1.2 > 10.1.1.255) ns3::UdpHeader (length: 52 698 > 698) ns3::olsr::PacketHeader (len: 44 seqNo: 1) ns3::olsr::MessageHeader (type: HELLO TTL: 1 Orig: 10.1.1.2 SeqNo: 2 Validity: 134 Hop count: 0 Size: 40 Interval: 5 (2s) Willingness: 3 Link code: 1 [10.1.3.1] Link code: 1 [10.1.2.1] Link code: 1 [10.1.1.1])
r 2.43283 /NodeList/1/DeviceList/1/$ns3::PointToPointNetDevice/MacRx ns3::PppHeader (Point-to-Point Protocol: IP (0x0021)) ns3::Ipv4Header (tos 0x0 DSCP Default ECN Not-ECT ttl 1 id 1 protocol 17 offset (bytes) 0 flags [none] length: 72 10.1.2.2 > 10.1.2.255) ns3::UdpHeader (length: 52 698 > 698) ns3::olsr::PacketHeader (len: 44 seqNo: 1) ns3::olsr::MessageHeader (type: HELLO TTL: 1 Orig: 10.1.1.2 SeqNo: 2 Validity: 134 Hop count: 0 Size: 40 Interval: 5 (2s) Willingness: 3 Link code: 1 [10.1.3.1] Link code: 1 [10.1.2.1] Link code: 1 [10.1.1.1])
r 2.44111 /NodeList/3/DeviceList/1/$ns3::PointToPointNetDevice/MacRx ns3::PppHeader (Point-to-Point Protocol: IP (0x0021)) ns3::Ipv4Header (tos 0x0 DSCP Default ECN Not-ECT ttl 1 id 1 protocol 17 offset (bytes) 0 flags [none] length: 72 10.1.3.2 > 10.1.3.255) ns3::UdpHeader (length: 52 698 > 698) ns3::olsr::PacketHeader (len: 44 seqNo: 1) ns3::olsr::MessageHeader (type: HELLO TTL: 1 Orig: 10.1.1.2 SeqNo: 2 Validity: 134 Hop count: 0 Size: 40 Interval: 5 (2s) Willingness: 3 Link code: 1 [10.1.3.1] Link code: 1 [10.1.2.1] Link code: 1 [10.1.1.1])
+ 4.08789 /NodeList/2/DeviceList/1/$ns3::PointToPointNetDevice/TxQueue/Enqueue ns3::PppHeader (Point-to-Point Protocol: IP (0x0021)) ns3::Ipv4Header (tos 0x0 DSCP Default ECN Not-ECT ttl 1 id 2 protocol 17 offset (bytes) 0 flags [none] length: 72 10.1.1.2 > 10.1.1.255) ns3::UdpHeader (length: 52 698 > 698) ns3::olsr::PacketHeader (len: 44 seqNo: 2) ns3::olsr::MessageHeader (type: HELLO TTL: 1 Orig: 10.1.1.2 SeqNo: 3 Validity: 134 Hop count: 0 Size: 40 Interval: 5 (2s) Willingness: 3 Link code: 6 [10.1.3.1] Link code: 6 [10.1.2.1] Link code: 6 [10.1.1.1])
- 4.08789 /NodeList/2/DeviceList/1/$ns3::PointToPointNetDevice/TxQueue/Dequeue ns3::PppHeader (Point-to-Point Protocol: IP (0x0021)) ns3::Ipv4Header (tos 0x0 DSCP Default ECN Not-ECT ttl 1 id 2 protocol 17 offset (bytes) 0 flags [none] length: 72 10.1.1.2 > 10.1.1.255) ns3::UdpHeader (length: 52 698 > 698) ns3::olsr::PacketHeader (len: 44 seqNo: 2) ns3::olsr::MessageHeader (type: HELLO TTL: 1 Orig: 10.1.1.2 SeqNo: 3 Validity: 134 Hop count: 0 Size: 40 Interval: 5 (2s) Willingness: 3 Link code: 6 [10.1.3.1] Link code: 6 [10.1.2.1] Link code: 6 [10.1.1.1])
+ 4.08789 /NodeList/2/DeviceList/2/$ns3::PointToPointNetDevice/TxQueue/Enqueue ns3::PppHeader (Point-to-Point Protocol: IP (0x0021)) ns3::Ipv4Header (tos 0x0 DSCP Default ECN Not-ECT ttl 1 id 2 protocol 17 offset (bytes) 0 flags [none] length: 72 10.1.2.2 > 10.1.2.255) ns3::UdpHeader (length: 52 698 > 698) ns3::olsr::PacketHeader (len: 44 seqNo: 2) ns3::olsr::MessageHeader (type: HELLO TTL: 1 Orig: 10.1.1.2 SeqNo: 3 Validity: 134 Hop count: 0 Size: 40 Interval: 5 (2s) Willingness: 3 Link code: 6 [10.1.3.1] Link code: 6 [10.1.2.1] Link code: 6 [10.1.1.1])
- 4.08789 /NodeList/2/DeviceList/2/$ns3::PointToPointNetDevice/TxQueue/Dequeue ns3::PppHeader (Point-to-Point Protocol: IP (0x0021)) ns3::Ipv4Header (tos 0x0 DSCP Default ECN Not-ECT ttl 1 id 2 protocol 17 offset (bytes) 0 flags [none] length: 72 10.1.2.2 > 10.1.2.255) ns3::UdpHeader (length: 52 698 > 698) ns3::olsr::PacketHeader (len: 44 seqNo: 2) ns3::olsr::MessageHeader (type: HELLO TTL: 1 Orig: 10.1.1.2 SeqNo: 3 Validity: 134 Hop count: 0 Size: 40 Interval: 5 (2s) Willingness: 3 Link code: 6 [10.1.3.1] Link code: 6 [10.1.2.1] Link code: 6 [10.1.1.1])
+ 4.08789 /NodeList/2/DeviceList/3/$ns3::PointToPointNetDevice/TxQueue/Enqueue ns3::PppHeader (Point-to-Point Protocol: IP (0x0021)) ns3::Ipv4Header (tos 0x0 DSCP Default ECN Not-ECT ttl 1 id 2 protocol 17 offset (bytes) 0 flags [none] length: 72 10.1.3.2 > 10.1.3.255) ns3::UdpHeader (length: 52 698 > 698) ns3::olsr::PacketHeader (len: 44 seqNo: 2) ns3::olsr::MessageHeader (type: HELLO TTL: 1 Orig: 10.1.1.2 SeqNo: 3 Validity: 134 Hop count: 0 Size: 40 Interval: 5 (2s) Willingness: 3 Link code: 6 [10.1.3.1] Link code: 6 [10.1.2.1] Link code: 6 [10.1.1.1])
- 4.08789 /NodeList/2/DeviceList/3/$ns3::PointToPointNetDevice/TxQueue/Dequeue ns3::PppHeader (Point-to-Point Protocol: IP (0x0021)) ns3::Ipv4Header (tos 0x0 DSCP Default ECN Not-ECT ttl 1 id 2 protocol 17 offset (bytes) 0 flags [none] length: 72 10.1.3.2 > 10.1.3.255) ns3::UdpHeader (length: 52 698 > 698) ns3::olsr::PacketHeader (len: 44 seqNo: 2) ns3::olsr::MessageHeader (type: HELLO TTL: 1 Orig: 10.1.1.2 SeqNo: 3 Validity: 134 Hop count: 0 Size: 40 Interval: 5 (2s) Willingness: 3 Link code: 6 [10.1.3.1] Link code: 6 [10.1.2.1] Link code: 6 [10.1.1.1])